Variables="X","e<greek>D</greek><greek>f</greek>/(k<sub>B</sub>T<sub>e</sub>)","
ZONE
8.33333e-05 8.32526 
0.00025 8.32526 
0.000416667 8.32526 
0.000583333 8.32526 
0.00075 8.32526 
0.000916667 8.32526 
0.00108333 8.32526 
0.00125 8.32526 
0.00141667 8.32526 
0.00158333 8.32526 
0.00175 8.32526 
0.00191667 8.32526 
0.00208333 8.32526 
0.00225 8.32526 
0.00241667 8.32526 
0.00258333 8.32526 
0.00275 8.32526 
0.00291667 8.32526 
0.00308333 8.32526 
0.00325 8.32526 
0.00341667 8.32526 
0.00358333 8.32526 
0.00375 8.32526 
0.00391667 8.32526 
0.00425 8.32526 
0.00441667 8.32526 
0.00458333 8.32526 
0.00475 8.32526 
0.00491667 8.32526 
0.00508333 8.32526 
0.00525 8.32526 
0.00541667 8.32526 
0.00558333 8.32526 
0.00575 8.32526 
0.00591667 8.32526 
0.00608333 8.32526 
0.00625 8.32526 
0.00641667 8.32526 
0.00658333 8.32526 
0.00675 8.32526 
0.00691667 8.32526 
0.00708333 8.32526 
0.00725 8.32526 
0.00741667 8.32526 
0.00758333 8.32526 
0.00775 8.32526 
0.00791667 8.32526 
0.00808333 8.32526 
0.00825 8.32526 
0.00841667 8.32526 
0.00858333 8.32526 
0.00875 8.32526 
0.00891667 8.32526 
0.00908333 8.32526 
0.00925 8.32526 
0.00941667 8.32526 
0.00958333 8.32526 
0.00975 8.32526 
0.00991667 8.32526 
0.0100833 8.32526 
0.01025 8.32526 
0.0104167 8.32526 
0.0105833 8.32526 
0.01075 8.32526 
0.0109167 8.32526 
0.0110833 8.32526 
0.01125 8.32526 
0.0114167 8.32526 
0.0115833 8.32526 
0.01175 8.32526 
0.0119167 8.32526 
0.0120833 8.32526 
0.01225 8.32526 
0.0124167 8.32526 
0.0125833 8.32526 
0.01275 8.32526 
0.0129167 8.32526 
0.0130833 8.32526 
0.01325 8.32526 
0.0134167 8.32526 
0.0135833 8.32526 
0.01375 8.32526 
0.0139167 8.32526 
0.0140833 8.32526 
0.01425 8.32526 
0.0144167 8.32526 
0.0145833 8.32526 
0.01475 8.32526 
0.0149167 8.32526 
0.0150833 8.32526 
0.01525 8.32526 
0.0154167 8.32526 
0.0155833 8.32526 
0.01575 8.32526 
0.0159167 8.32526 
0.0160833 8.32526 
0.01625 8.32526 
0.0164167 8.32526 
0.0165833 8.32526 
0.01675 8.32526 
0.0169167 8.32526 
0.0170833 8.32526 
0.01725 8.32526 
0.0174167 8.32526 
0.0175833 8.32526 
0.01775 8.32526 
0.0179167 8.32526 
0.0180833 8.32526 
0.01825 8.32526 
0.0184167 8.32526 
0.0185833 8.32526 
0.01875 8.32526 
0.0189167 8.32526 
0.0190833 8.32526 
0.01925 8.32526 
0.0194167 8.32526 
0.0195833 8.32526 
0.01975 8.32526 
0.0199167 8.32526 
0.0200833 8.32526 
ZONE
8.33333e-05 8.32226 
0.00025 8.32225 
0.000416667 8.32225 
0.000583333 8.32225 
0.00075 8.32225 
0.000916667 8.32225 
0.00108333 8.32225 
0.00125 8.32225 
0.00141667 8.32225 
0.00158333 8.32225 
0.00175 8.32225 
0.00191667 8.32225 
0.00208333 8.32225 
0.00225 8.32225 
0.00241667 8.32225 
0.00258333 8.32225 
0.00275 8.32225 
0.00291667 8.32225 
0.00308333 8.32225 
0.00325 8.32225 
0.00341667 8.32225 
0.00358333 8.32225 
0.00375 8.32225 
0.00391667 8.32225 
0.00425 8.32225 
0.00441667 8.32225 
0.00458333 8.32225 
0.00475 8.32225 
0.00491667 8.32225 
0.00508333 8.32225 
0.00525 8.32225 
0.00541667 8.32225 
0.00558333 8.32225 
0.00575 8.32225 
0.00591667 8.32225 
0.00608333 8.32225 
0.00625 8.32225 
0.00641667 8.32225 
0.00658333 8.32225 
0.00675 8.32225 
0.00691667 8.32225 
0.00708333 8.32225 
0.00725 8.32225 
0.00741667 8.32225 
0.00758333 8.32225 
0.00775 8.32225 
0.00791667 8.32225 
0.00808333 8.32225 
0.00825 8.32225 
0.00841667 8.32225 
0.00858333 8.32225 
0.00875 8.32225 
0.00891667 8.32225 
0.00908333 8.32225 
0.00925 8.32225 
0.00941667 8.32225 
0.00958333 8.32225 
0.00975 8.32225 
0.00991667 8.32225 
0.0100833 8.32225 
0.01025 8.32225 
0.0104167 8.32225 
0.0105833 8.32225 
0.01075 8.32225 
0.0109167 8.32225 
0.0110833 8.32225 
0.01125 8.32225 
0.0114167 8.32225 
0.0115833 8.32225 
0.01175 8.32225 
0.0119167 8.32225 
0.0120833 8.32225 
0.01225 8.32225 
0.0124167 8.32225 
0.0125833 8.32225 
0.01275 8.32225 
0.0129167 8.32225 
0.0130833 8.32225 
0.01325 8.32225 
0.0134167 8.32225 
0.0135833 8.32225 
0.01375 8.32225 
0.0139167 8.32225 
0.0140833 8.32225 
0.01425 8.32225 
0.0144167 8.32225 
0.0145833 8.32225 
0.01475 8.32225 
0.0149167 8.32225 
0.0150833 8.32225 
0.01525 8.32225 
0.0154167 8.32225 
0.0155833 8.32225 
0.01575 8.32225 
0.0159167 8.32225 
0.0160833 8.32225 
0.01625 8.32225 
0.0164167 8.32225 
0.0165833 8.32225 
0.01675 8.32225 
0.0169167 8.32225 
0.0170833 8.32225 
0.01725 8.32225 
0.0174167 8.32225 
0.0175833 8.32225 
0.01775 8.32225 
0.0179167 8.32225 
0.0180833 8.32225 
0.01825 8.32225 
0.0184167 8.32225 
0.0185833 8.32225 
0.01875 8.32225 
0.0189167 8.32225 
0.0190833 8.32225 
0.01925 8.32225 
0.0194167 8.32225 
0.0195833 8.32225 
0.01975 8.32225 
0.0199167 8.32225 
0.0200833 8.32225 
ZONE
8.33333e-05 8.32233 
0.00025 8.32233 
0.000416667 8.32233 
0.000583333 8.32233 
0.00075 8.32233 
0.000916667 8.32233 
0.00108333 8.32233 
0.00125 8.32233 
0.00141667 8.32233 
0.00158333 8.32233 
0.00175 8.32233 
0.00191667 8.32233 
0.00208333 8.32233 
0.00225 8.32233 
0.00241667 8.32233 
0.00258333 8.32233 
0.00275 8.32233 
0.00291667 8.32233 
0.00308333 8.32233 
0.00325 8.32233 
0.00341667 8.32233 
0.00358333 8.32233 
0.00375 8.32233 
0.00391667 8.32233 
0.00425 8.32233 
0.00441667 8.32233 
0.00458333 8.32233 
0.00475 8.32233 
0.00491667 8.32233 
0.00508333 8.32233 
0.00525 8.32233 
0.00541667 8.32233 
0.00558333 8.32233 
0.00575 8.32233 
0.00591667 8.32233 
0.00608333 8.32233 
0.00625 8.32233 
0.00641667 8.32233 
0.00658333 8.32233 
0.00675 8.32233 
0.00691667 8.32233 
0.00708333 8.32233 
0.00725 8.32233 
0.00741667 8.32233 
0.00758333 8.32233 
0.00775 8.32233 
0.00791667 8.32233 
0.00808333 8.32233 
0.00825 8.32233 
0.00841667 8.32233 
0.00858333 8.32233 
0.00875 8.32233 
0.00891667 8.32233 
0.00908333 8.32233 
0.00925 8.32233 
0.00941667 8.32233 
0.00958333 8.32233 
0.00975 8.32233 
0.00991667 8.32233 
0.0100833 8.32233 
0.01025 8.32233 
0.0104167 8.32233 
0.0105833 8.32233 
0.01075 8.32233 
0.0109167 8.32233 
0.0110833 8.32233 
0.01125 8.32233 
0.0114167 8.32233 
0.0115833 8.32233 
0.01175 8.32233 
0.0119167 8.32233 
0.0120833 8.32233 
0.01225 8.32233 
0.0124167 8.32233 
0.0125833 8.32233 
0.01275 8.32233 
0.0129167 8.32233 
0.0130833 8.32233 
0.01325 8.32233 
0.0134167 8.32233 
0.0135833 8.32233 
0.01375 8.32233 
0.0139167 8.32233 
0.0140833 8.32233 
0.01425 8.32233 
0.0144167 8.32233 
0.0145833 8.32233 
0.01475 8.32233 
0.0149167 8.32233 
0.0150833 8.32233 
0.01525 8.32233 
0.0154167 8.32233 
0.0155833 8.32233 
0.01575 8.32233 
0.0159167 8.32233 
0.0160833 8.32233 
0.01625 8.32233 
0.0164167 8.32233 
0.0165833 8.32233 
0.01675 8.32233 
0.0169167 8.32233 
0.0170833 8.32233 
0.01725 8.32233 
0.0174167 8.32233 
0.0175833 8.32233 
0.01775 8.32233 
0.0179167 8.32233 
0.0180833 8.32233 
0.01825 8.32233 
0.0184167 8.32233 
0.0185833 8.32233 
0.01875 8.32233 
0.0189167 8.32233 
0.0190833 8.32233 
0.01925 8.32233 
0.0194167 8.32233 
0.0195833 8.32233 
0.01975 8.32233 
0.0199167 8.32233 
0.0200833 8.32233 
ZONE
8.33333e-05 8.3224 
0.00025 8.3224 
0.000416667 8.3224 
0.000583333 8.3224 
0.00075 8.3224 
0.000916667 8.3224 
0.00108333 8.3224 
0.00125 8.3224 
0.00141667 8.3224 
0.00158333 8.3224 
0.00175 8.3224 
0.00191667 8.3224 
0.00208333 8.3224 
0.00225 8.3224 
0.00241667 8.3224 
0.00258333 8.3224 
0.00275 8.3224 
0.00291667 8.3224 
0.00308333 8.3224 
0.00325 8.3224 
0.00341667 8.3224 
0.00358333 8.3224 
0.00375 8.3224 
0.00391667 8.3224 
0.00425 8.3224 
0.00441667 8.3224 
0.00458333 8.3224 
0.00475 8.3224 
0.00491667 8.3224 
0.00508333 8.3224 
0.00525 8.3224 
0.00541667 8.3224 
0.00558333 8.3224 
0.00575 8.3224 
0.00591667 8.3224 
0.00608333 8.3224 
0.00625 8.3224 
0.00641667 8.3224 
0.00658333 8.3224 
0.00675 8.3224 
0.00691667 8.3224 
0.00708333 8.3224 
0.00725 8.3224 
0.00741667 8.3224 
0.00758333 8.3224 
0.00775 8.3224 
0.00791667 8.3224 
0.00808333 8.3224 
0.00825 8.3224 
0.00841667 8.3224 
0.00858333 8.3224 
0.00875 8.3224 
0.00891667 8.3224 
0.00908333 8.3224 
0.00925 8.3224 
0.00941667 8.3224 
0.00958333 8.3224 
0.00975 8.3224 
0.00991667 8.3224 
0.0100833 8.3224 
0.01025 8.3224 
0.0104167 8.3224 
0.0105833 8.3224 
0.01075 8.3224 
0.0109167 8.3224 
0.0110833 8.3224 
0.01125 8.3224 
0.0114167 8.3224 
0.0115833 8.3224 
0.01175 8.3224 
0.0119167 8.3224 
0.0120833 8.3224 
0.01225 8.3224 
0.0124167 8.3224 
0.0125833 8.3224 
0.01275 8.3224 
0.0129167 8.3224 
0.0130833 8.3224 
0.01325 8.3224 
0.0134167 8.3224 
0.0135833 8.3224 
0.01375 8.3224 
0.0139167 8.3224 
0.0140833 8.3224 
0.01425 8.3224 
0.0144167 8.3224 
0.0145833 8.3224 
0.01475 8.3224 
0.0149167 8.3224 
0.0150833 8.3224 
0.01525 8.3224 
0.0154167 8.3224 
0.0155833 8.3224 
0.01575 8.3224 
0.0159167 8.3224 
0.0160833 8.3224 
0.01625 8.3224 
0.0164167 8.3224 
0.0165833 8.3224 
0.01675 8.3224 
0.0169167 8.3224 
0.0170833 8.3224 
0.01725 8.3224 
0.0174167 8.3224 
0.0175833 8.3224 
0.01775 8.3224 
0.0179167 8.3224 
0.0180833 8.3224 
0.01825 8.3224 
0.0184167 8.3224 
0.0185833 8.3224 
0.01875 8.3224 
0.0189167 8.3224 
0.0190833 8.3224 
0.01925 8.3224 
0.0194167 8.3224 
0.0195833 8.3224 
0.01975 8.3224 
0.0199167 8.3224 
0.0200833 8.3224 
