Variables="X","<greek>f</greek>","
ZONE
8.33333e-05 -995.833
0.00025 -987.5
0.000416667 -979.167
0.000583333 -970.833
0.00075 -962.5
0.000916667 -954.167
0.00108333 -945.833
0.00125 -937.5
0.00141667 -929.167
0.00158333 -920.833
0.00175 -912.5
0.00191667 -904.167
0.00208333 -895.833
0.00225 -887.5
0.00241667 -879.167
0.00258333 -870.833
0.00275 -862.5
0.00291667 -854.167
0.00308333 -845.833
0.00325 -837.5
0.00341667 -829.167
0.00358333 -820.833
0.00375 -812.5
0.00391667 -804.167
0.00425 -795.833
0.00441667 -787.5
0.00458333 -779.167
0.00475 -770.833
0.00491667 -762.5
0.00508333 -754.167
0.00525 -745.833
0.00541667 -737.5
0.00558333 -729.167
0.00575 -720.833
0.00591667 -712.5
0.00608333 -704.167
0.00625 -695.833
0.00641667 -687.5
0.00658333 -679.167
0.00675 -670.833
0.00691667 -662.5
0.00708333 -654.167
0.00725 -645.833
0.00741667 -637.5
0.00758333 -629.167
0.00775 -620.833
0.00791667 -612.5
0.00808333 -604.167
0.00825 -595.833
0.00841667 -587.5
0.00858333 -579.167
0.00875 -570.833
0.00891667 -562.5
0.00908333 -554.167
0.00925 -545.833
0.00941667 -537.5
0.00958333 -529.167
0.00975 -520.833
0.00991667 -512.5
0.0100833 -504.167
0.01025 -495.833
0.0104167 -487.5
0.0105833 -479.167
0.01075 -470.833
0.0109167 -462.5
0.0110833 -454.167
0.01125 -445.833
0.0114167 -437.5
0.0115833 -429.167
0.01175 -420.833
0.0119167 -412.5
0.0120833 -404.167
0.01225 -395.833
0.0124167 -387.5
0.0125833 -379.167
0.01275 -370.833
0.0129167 -362.5
0.0130833 -354.167
0.01325 -345.833
0.0134167 -337.5
0.0135833 -329.167
0.01375 -320.833
0.0139167 -312.5
0.0140833 -304.167
0.01425 -295.833
0.0144167 -287.5
0.0145833 -279.167
0.01475 -270.833
0.0149167 -262.5
0.0150833 -254.167
0.01525 -245.833
0.0154167 -237.5
0.0155833 -229.167
0.01575 -220.833
0.0159167 -212.5
0.0160833 -204.167
0.01625 -195.833
0.0164167 -187.5
0.0165833 -179.167
0.01675 -170.833
0.0169167 -162.5
0.0170833 -154.167
0.01725 -145.833
0.0174167 -137.5
0.0175833 -129.167
0.01775 -120.833
0.0179167 -112.5
0.0180833 -104.167
0.01825 -95.8333
0.0184167 -87.5
0.0185833 -79.1667
0.01875 -70.8333
0.0189167 -62.5
0.0190833 -54.1667
0.01925 -45.8333
0.0194167 -37.5
0.0195833 -29.1667
0.01975 -20.8333
0.0199167 -12.5
0.0200833 -4.16667
ZONE
8.33333e-05 -995.474
0.00025 -987.144
0.000416667 -978.813
0.000583333 -970.483
0.00075 -962.153
0.000916667 -953.822
0.00108333 -945.492
0.00125 -937.162
0.00141667 -928.831
0.00158333 -920.501
0.00175 -912.171
0.00191667 -903.84
0.00208333 -895.51
0.00225 -887.18
0.00241667 -878.85
0.00258333 -870.519
0.00275 -862.189
0.00291667 -853.859
0.00308333 -845.528
0.00325 -837.198
0.00341667 -828.868
0.00358333 -820.537
0.00375 -812.207
0.00391667 -803.877
0.00425 -795.546
0.00441667 -787.216
0.00458333 -778.886
0.00475 -770.555
0.00491667 -762.225
0.00508333 -753.895
0.00525 -745.564
0.00541667 -737.234
0.00558333 -728.904
0.00575 -720.573
0.00591667 -712.243
0.00608333 -703.913
0.00625 -695.582
0.00641667 -687.252
0.00658333 -678.922
0.00675 -670.591
0.00691667 -662.261
0.00708333 -653.931
0.00725 -645.6
0.00741667 -637.27
0.00758333 -628.94
0.00775 -620.609
0.00791667 -612.279
0.00808333 -603.949
0.00825 -595.618
0.00841667 -587.288
0.00858333 -578.958
0.00875 -570.627
0.00891667 -562.297
0.00908333 -553.967
0.00925 -545.636
0.00941667 -537.306
0.00958333 -528.976
0.00975 -520.645
0.00991667 -512.315
0.0100833 -503.985
0.01025 -495.654
0.0104167 -487.324
0.0105833 -478.994
0.01075 -470.663
0.0109167 -462.333
0.0110833 -454.003
0.01125 -445.673
0.0114167 -437.342
0.0115833 -429.012
0.01175 -420.682
0.0119167 -412.351
0.0120833 -404.021
0.01225 -395.691
0.0124167 -387.36
0.0125833 -379.03
0.01275 -370.7
0.0129167 -362.369
0.0130833 -354.039
0.01325 -345.709
0.0134167 -337.378
0.0135833 -329.048
0.01375 -320.718
0.0139167 -312.387
0.0140833 -304.057
0.01425 -295.727
0.0144167 -287.396
0.0145833 -279.066
0.01475 -270.736
0.0149167 -262.405
0.0150833 -254.075
0.01525 -245.745
0.0154167 -237.414
0.0155833 -229.084
0.01575 -220.754
0.0159167 -212.423
0.0160833 -204.093
0.01625 -195.763
0.0164167 -187.432
0.0165833 -179.102
0.01675 -170.772
0.0169167 -162.441
0.0170833 -154.111
0.01725 -145.781
0.0174167 -137.45
0.0175833 -129.12
0.01775 -120.79
0.0179167 -112.459
0.0180833 -104.129
0.01825 -95.7988
0.0184167 -87.4684
0.0185833 -79.1381
0.01875 -70.8078
0.0189167 -62.4775
0.0190833 -54.1471
0.01925 -45.8168
0.0194167 -37.4865
0.0195833 -29.1561
0.01975 -20.8258
0.0199167 -12.4955
0.0200833 -4.16516
ZONE
8.33333e-05 -995.483
0.00025 -987.153
0.000416667 -978.822
0.000583333 -970.492
0.00075 -962.162
0.000916667 -953.831
0.00108333 -945.501
0.00125 -937.17
0.00141667 -928.84
0.00158333 -920.51
0.00175 -912.179
0.00191667 -903.849
0.00208333 -895.518
0.00225 -887.188
0.00241667 -878.858
0.00258333 -870.527
0.00275 -862.197
0.00291667 -853.866
0.00308333 -845.536
0.00325 -837.206
0.00341667 -828.875
0.00358333 -820.545
0.00375 -812.214
0.00391667 -803.884
0.00425 -795.553
0.00441667 -787.223
0.00458333 -778.893
0.00475 -770.562
0.00491667 -762.232
0.00508333 -753.901
0.00525 -745.571
0.00541667 -737.241
0.00558333 -728.91
0.00575 -720.58
0.00591667 -712.249
0.00608333 -703.919
0.00625 -695.589
0.00641667 -687.258
0.00658333 -678.928
0.00675 -670.597
0.00691667 -662.267
0.00708333 -653.937
0.00725 -645.606
0.00741667 -637.276
0.00758333 -628.945
0.00775 -620.615
0.00791667 -612.285
0.00808333 -603.954
0.00825 -595.624
0.00841667 -587.293
0.00858333 -578.963
0.00875 -570.633
0.00891667 -562.302
0.00908333 -553.972
0.00925 -545.641
0.00941667 -537.311
0.00958333 -528.981
0.00975 -520.65
0.00991667 -512.32
0.0100833 -503.989
0.01025 -495.659
0.0104167 -487.329
0.0105833 -478.998
0.01075 -470.668
0.0109167 -462.337
0.0110833 -454.007
0.01125 -445.677
0.0114167 -437.346
0.0115833 -429.016
0.01175 -420.685
0.0119167 -412.355
0.0120833 -404.025
0.01225 -395.694
0.0124167 -387.364
0.0125833 -379.033
0.01275 -370.703
0.0129167 -362.373
0.0130833 -354.042
0.01325 -345.712
0.0134167 -337.381
0.0135833 -329.051
0.01375 -320.721
0.0139167 -312.39
0.0140833 -304.06
0.01425 -295.729
0.0144167 -287.399
0.0145833 -279.069
0.01475 -270.738
0.0149167 -262.408
0.0150833 -254.077
0.01525 -245.747
0.0154167 -237.416
0.0155833 -229.086
0.01575 -220.756
0.0159167 -212.425
0.0160833 -204.095
0.01625 -195.764
0.0164167 -187.434
0.0165833 -179.104
0.01675 -170.773
0.0169167 -162.443
0.0170833 -154.112
0.01725 -145.782
0.0174167 -137.452
0.0175833 -129.121
0.01775 -120.791
0.0179167 -112.46
0.0180833 -104.13
0.01825 -95.7996
0.0184167 -87.4692
0.0185833 -79.1388
0.01875 -70.8084
0.0189167 -62.478
0.0190833 -54.1476
0.01925 -45.8172
0.0194167 -37.4868
0.0195833 -29.1564
0.01975 -20.826
0.0199167 -12.4956
0.0200833 -4.1652
ZONE
8.33333e-05 -995.492
0.00025 -987.161
0.000416667 -978.831
0.000583333 -970.5
0.00075 -962.17
0.000916667 -953.839
0.00108333 -945.509
0.00125 -937.179
0.00141667 -928.848
0.00158333 -920.518
0.00175 -912.187
0.00191667 -903.857
0.00208333 -895.526
0.00225 -887.196
0.00241667 -878.865
0.00258333 -870.535
0.00275 -862.204
0.00291667 -853.874
0.00308333 -845.543
0.00325 -837.213
0.00341667 -828.882
0.00358333 -820.552
0.00375 -812.221
0.00391667 -803.891
0.00425 -795.56
0.00441667 -787.23
0.00458333 -778.899
0.00475 -770.569
0.00491667 -762.239
0.00508333 -753.908
0.00525 -745.578
0.00541667 -737.247
0.00558333 -728.917
0.00575 -720.586
0.00591667 -712.256
0.00608333 -703.925
0.00625 -695.595
0.00641667 -687.264
0.00658333 -678.934
0.00675 -670.603
0.00691667 -662.273
0.00708333 -653.942
0.00725 -645.612
0.00741667 -637.281
0.00758333 -628.951
0.00775 -620.62
0.00791667 -612.29
0.00808333 -603.959
0.00825 -595.629
0.00841667 -587.299
0.00858333 -578.968
0.00875 -570.638
0.00891667 -562.307
0.00908333 -553.977
0.00925 -545.646
0.00941667 -537.316
0.00958333 -528.985
0.00975 -520.655
0.00991667 -512.324
0.0100833 -503.994
0.01025 -495.663
0.0104167 -487.333
0.0105833 -479.002
0.01075 -470.672
0.0109167 -462.341
0.0110833 -454.011
0.01125 -445.68
0.0114167 -437.35
0.0115833 -429.02
0.01175 -420.689
0.0119167 -412.359
0.0120833 -404.028
0.01225 -395.698
0.0124167 -387.367
0.0125833 -379.037
0.01275 -370.706
0.0129167 -362.376
0.0130833 -354.045
0.01325 -345.715
0.0134167 -337.384
0.0135833 -329.054
0.01375 -320.723
0.0139167 -312.393
0.0140833 -304.062
0.01425 -295.732
0.0144167 -287.401
0.0145833 -279.071
0.01475 -270.74
0.0149167 -262.41
0.0150833 -254.08
0.01525 -245.749
0.0154167 -237.419
0.0155833 -229.088
0.01575 -220.758
0.0159167 -212.427
0.0160833 -204.097
0.01625 -195.766
0.0164167 -187.436
0.0165833 -179.105
0.01675 -170.775
0.0169167 -162.444
0.0170833 -154.114
0.01725 -145.783
0.0174167 -137.453
0.0175833 -129.122
0.01775 -120.792
0.0179167 -112.461
0.0180833 -104.131
0.01825 -95.8005
0.0184167 -87.47
0.0185833 -79.1395
0.01875 -70.809
0.0189167 -62.4786
0.0190833 -54.1481
0.01925 -45.8176
0.0194167 -37.4871
0.0195833 -29.1567
0.01975 -20.8262
0.0199167 -12.4957
0.0200833 -4.16524
